% Model:              CPW impedance model pressed.mph
% Version:            COMSOL 5.6.0.280
% Date:               May 29 2021, 22:00
% Dimension:          1
% Nodes:              12
% Expressions:        1
% Description:        Table graph
%                         
316.01562500000006        150
356.591796875             209.09090909090907
379.2968749999999         268.1818181818182
393.06640624999994        327.27272727272725
401.26953125              386.3636363636364
406.25000000000006        445.45454545454544
409.1796875               504.5454545454545
410.9375                  563.6363636363636
412.109375                622.7272727272726
412.69531250000006        681.8181818181819
413.28125000000006        740.909090909091
413.28125000000006        800
